ITEM: TIMESTEP
0
ITEM: NUMBER OF ATOMS
107
ITEM: BOX BOUNDS pp pp pp
0.0 11.76
0.0 11.76
0.0 11.76
ITEM: ATOMS id type x y z
1 1 11.7220 11.7579 11.7407
2 1 1.9479 1.9425 11.7220
3 1 1.9769 11.7386 1.8775
4 1 11.7498 1.9515 1.9639
5 1 3.9195 11.7347 11.6759
6 1 5.8820 1.9323 11.7053
7 1 5.9184 11.7444 1.9595
8 1 3.9144 1.9773 1.9651
9 1 7.8372 11.7404 11.7105
10 1 9.8015 2.0068 11.7093
11 1 9.7688 11.7489 1.9504
12 1 7.8599 1.9231 1.9450
13 1 0.0495 3.8737 11.7202
14 1 1.9859 5.8530 11.7388
15 1 1.9502 3.8828 1.9187
16 1 0.0191 5.8508 1.9388
17 1 3.9250 3.9238 11.7244
18 1 7.7954 9.7589 9.7634
19 1 5.8946 3.9000 1.9325
20 1 3.9373 5.8267 1.9264
21 1 7.8492 3.9098 11.7375
22 1 9.8051 5.8435 11.7438
23 1 9.8119 3.9251 1.9537
24 1 7.8637 5.8643 1.9018
25 1 0.0184 7.8555 11.7393
26 1 1.9547 9.8235 11.7573
27 1 1.9796 7.8458 1.9305
28 1 0.0142 9.8077 1.9152
29 1 3.9119 7.8327 11.7368
30 1 5.8216 9.7637 11.7192
31 1 5.8814 7.8061 1.9220
32 1 3.9277 9.7740 1.8967
33 1 7.8673 7.8296 11.6987
34 1 9.8181 9.7471 11.7486
35 1 9.8004 7.8403 1.8822
36 1 7.8508 9.8219 1.8880
37 1 11.7439 11.7370 3.8927
38 1 1.9405 1.9713 3.8711
39 1 1.9944 11.7315 5.8169
40 1 11.7550 1.8927 5.8626
41 1 3.9373 11.7092 3.8838
42 1 5.9210 1.9541 3.8958
43 1 5.9232 0.0004 5.8421
44 1 3.9053 1.9464 5.8832
45 1 7.8611 11.7313 3.8726
46 1 9.8057 1.9417 3.8714
47 1 9.8392 11.7049 5.8400
48 1 7.8518 1.9585 5.8503
49 1 0.0104 3.8979 3.8882
50 1 1.9617 5.8682 3.9143
51 1 1.9104 3.8873 5.8591
52 1 0.0190 5.8827 5.8396
53 1 3.9143 3.8726 3.9488
54 1 5.7757 5.9311 3.7857
55 1 5.7197 4.1345 6.0312
56 1 3.8430 5.7725 5.9726
57 1 7.8168 3.9013 3.9000
58 1 9.7702 5.8821 3.9149
59 1 9.7928 3.8670 5.8392
60 1 8.0264 5.5754 5.3647
61 1 0.0348 7.7991 3.9161
62 1 1.9710 9.8059 3.8727
63 1 1.8775 7.9446 5.7483
64 1 0.0004 9.7717 5.8666
65 1 3.5101 7.7597 3.8655
66 1 5.8626 9.8051 3.8675
67 1 3.9028 9.4146 5.7719
68 1 7.8434 7.7912 3.9050
69 1 9.7823 9.7633 3.8698
70 1 9.8126 7.8346 5.8431
71 1 7.8739 9.7926 5.8342
72 1 0.0407 11.7423 7.7982
73 1 1.9774 1.9327 7.7977
74 1 1.9840 11.7245 9.7537
75 1 0.0173 1.9544 9.7767
76 1 3.9492 11.7184 7.7677
77 1 5.8936 1.9603 7.8178
78 1 5.9190 11.7583 9.7800
79 1 3.9614 1.9311 9.7605
80 1 7.8823 0.0070 7.8365
81 1 9.8414 1.9470 7.8013
82 1 9.8470 11.7514 9.7524
83 1 7.8821 1.9451 9.7548
84 1 11.7540 3.9345 7.7774
85 1 1.6751 6.0903 7.8117
86 1 1.9867 3.9014 9.7561
87 1 0.0131 5.8624 9.7772
88 1 3.9045 3.7016 7.6442
89 1 5.8796 5.9340 7.7710
90 1 5.8694 5.8664 11.7281
91 1 3.9648 6.2132 10.0467
92 1 7.8161 3.9308 7.8160
93 1 9.7934 5.8773 7.8211
94 1 9.7979 3.8832 9.7504
95 1 7.8643 5.8542 9.8076
96 1 0.0301 7.8351 7.7953
97 1 1.9858 9.7780 7.8351
98 1 1.9481 7.8177 9.7715
99 1 0.0270 9.7827 9.7659
100 1 4.2537 7.6107 7.8398
101 1 5.7037 9.7252 8.2192
102 1 5.9817 8.4092 9.7449
103 1 3.8911 9.7982 9.7636
104 1 7.6530 7.9888 7.3510
105 1 9.7818 9.7914 7.8331
106 1 9.8040 7.7719 9.8097
107 1 5.8497 3.8890 9.7718
ITEM: TIMESTEP
1
ITEM: NUMBER OF ATOMS
107
ITEM: BOX BOUNDS pp pp pp
0.0 11.76
0.0 11.76
0.0 11.76
ITEM: ATOMS id type x y z
1 1 11.7231 11.7588 11.7403
2 1 1.9530 1.9457 11.7197
3 1 1.9769 11.7422 1.8824
4 1 11.7495 1.9504 1.9604
5 1 3.9142 11.7472 11.6906
6 1 5.8825 1.9341 11.7080
7 1 5.9118 11.7415 1.9576
8 1 3.9167 1.9741 1.9625
9 1 7.8440 11.7471 11.7161
10 1 9.8019 2.0030 11.7120
11 1 9.7712 11.7489 1.9473
12 1 7.8568 1.9281 1.9473
13 1 0.0470 3.8757 11.7208
14 1 1.9872 5.8524 11.7336
15 1 1.9517 3.8824 1.9195
16 1 0.0124 5.8484 1.9349
17 1 3.9250 3.9299 11.7186
18 1 7.8336 9.7782 9.7590
19 1 5.8902 3.8962 1.9249
20 1 3.9348 5.8307 1.9231
21 1 7.8453 3.9124 11.7346
22 1 9.8019 5.8473 11.7367
23 1 9.8144 3.9220 1.9485
24 1 7.8516 5.8719 1.9066
25 1 0.0169 7.8534 11.7416
26 1 1.9532 9.8248 11.7510
27 1 1.9611 7.8463 1.9200
28 1 0.0075 9.8102 1.9144
29 1 3.9102 7.8528 0.0020
30 1 5.8301 9.7853 11.7408
31 1 5.8739 7.8114 1.9445
32 1 3.9280 9.7733 1.9054
33 1 7.8720 7.8287 11.7085
34 1 9.8198 9.7500 11.7421
35 1 9.8040 7.8411 1.8829
36 1 7.8438 9.8133 1.9002
37 1 11.7457 11.7374 3.8910
38 1 1.9428 1.9616 3.8731
39 1 2.0000 11.7169 5.8191
40 1 11.7560 1.8950 5.8602
41 1 3.9448 11.7063 3.8969
42 1 5.9119 1.9505 3.9052
43 1 5.9063 11.7238 5.8507
44 1 3.9065 1.9385 5.8699
45 1 7.8536 11.7299 3.8843
46 1 9.8034 1.9374 3.8745
47 1 9.8336 11.7077 5.8426
48 1 7.8414 1.9619 5.8557
49 1 0.0157 3.8963 3.8874
50 1 1.9499 5.8451 3.9123
51 1 1.9100 3.8900 5.8655
52 1 0.0045 5.8808 5.8398
53 1 3.9163 3.8814 3.9511
54 1 5.7789 5.9114 3.7868
55 1 5.7687 4.0824 5.9743
56 1 3.8245 5.7917 5.9618
57 1 7.8045 3.8808 3.8811
58 1 9.7988 5.8841 3.8896
59 1 9.8064 3.8576 5.8413
60 1 7.9754 5.6518 5.4991
61 1 0.0254 7.8046 3.9029
62 1 1.9693 9.8113 3.8743
63 1 1.8978 7.9144 5.7903
64 1 11.7554 9.7838 5.8679
65 1 3.6214 7.7800 3.8518
66 1 5.8496 9.7957 3.8580
67 1 3.9265 9.5219 5.8035
68 1 7.8455 7.7984 3.9009
69 1 9.7838 9.7637 3.8658
70 1 9.7924 7.8353 5.8380
71 1 7.8623 9.8187 5.8266
72 1 0.0410 11.7402 7.7993
73 1 1.9770 1.9262 7.7992
74 1 1.9787 11.7262 9.7537
75 1 0.0185 1.9543 9.7740
76 1 3.9456 11.7124 7.7564
77 1 5.8930 1.9580 7.8159
78 1 5.9148 11.7416 9.7807
79 1 3.9553 1.9353 9.7565
80 1 7.8712 11.7590 7.8297
81 1 9.8390 1.9472 7.8011
82 1 9.8443 11.7495 9.7539
83 1 7.8804 1.9468 9.7547
84 1 11.7568 3.9352 7.7832
85 1 1.7761 6.0214 7.8303
86 1 1.9946 3.9155 9.7532
87 1 0.0036 5.8628 9.7801
88 1 3.8909 3.7524 7.6792
89 1 5.9124 5.9208 7.7937
90 1 5.8810 5.8816 11.7186
91 1 3.9542 6.1423 9.9720
92 1 7.8098 3.9439 7.8129
93 1 9.7730 5.8845 7.8043
94 1 9.7954 3.8926 9.7440
95 1 7.8505 5.8810 9.7904
96 1 0.0040 7.8517 7.7961
97 1 2.0044 9.7622 7.8259
98 1 1.9466 7.8185 9.7717
99 1 0.0234 9.7836 9.7659
100 1 4.1485 7.6775 7.8328
101 1 5.7616 9.7703 8.0742
102 1 5.9641 8.2410 9.7433
103 1 3.8629 9.8034 9.7756
104 1 7.6885 7.9244 7.4521
105 1 9.7835 9.7843 7.8236
106 1 9.7872 7.7759 9.7929
107 1 5.8474 3.9021 9.7642
ITEM: TIMESTEP
2
ITEM: NUMBER OF ATOMS
107
ITEM: BOX BOUNDS pp pp pp
0.0 11.76
0.0 11.76
0.0 11.76
ITEM: ATOMS id type x y z
1 1 11.7243 11.7598 11.7397
2 1 1.9558 1.9455 11.7189
3 1 1.9767 11.7451 1.8868
4 1 11.7494 1.9494 1.9572
5 1 3.9106 11.7564 11.7014
6 1 5.8830 1.9353 11.7099
7 1 5.9083 11.7430 1.9548
8 1 3.9185 1.9716 1.9606
9 1 7.8498 11.7536 11.7203
10 1 9.8022 2.0002 11.7142
11 1 9.7728 11.7489 1.9450
12 1 7.8538 1.9320 1.9494
13 1 0.0447 3.8775 11.7208
14 1 1.9882 5.8549 11.7324
15 1 1.9536 3.8826 1.9205
16 1 0.0086 5.8469 1.9317
17 1 3.9277 3.9331 11.7165
18 1 7.8531 9.7884 9.7536
19 1 5.8863 3.8931 1.9182
20 1 3.9330 5.8348 1.9195
21 1 7.8418 3.9157 11.7315
22 1 9.8015 5.8487 11.7319
23 1 9.8170 3.9185 1.9422
24 1 7.8428 5.8765 1.9123
25 1 0.0164 7.8505 11.7415
26 1 1.9508 9.8258 11.7486
27 1 1.9507 7.8460 1.9164
28 1 0.0043 9.8112 1.9152
29 1 3.9097 7.8643 0.0145
30 1 5.8393 9.7993 11.7496
31 1 5.8719 7.8157 1.9598
32 1 3.9281 9.7735 1.9126
33 1 7.8712 7.8298 11.7120
34 1 9.8190 9.7518 11.7354
35 1 9.8060 7.8400 1.8857
36 1 7.8365 9.8052 1.9093
37 1 11.7473 11.7370 3.8898
38 1 1.9460 1.9532 3.8763
39 1 2.0012 11.7119 5.8205
40 1 11.7575 1.8967 5.8585
41 1 3.9479 11.7038 3.9010
42 1 5.9045 1.9449 3.9117
43 1 5.8988 11.7087 5.8527
44 1 3.9072 1.9364 5.8626
45 1 7.8465 11.7292 3.8945
46 1 9.8016 1.9323 3.8767
47 1 9.8272 11.7091 5.8458
48 1 7.8369 1.9639 5.8582
49 1 0.0200 3.8941 3.8866
50 1 1.9468 5.8365 3.9124
51 1 1.9106 3.8914 5.8703
52 1 11.7570 5.8807 5.8417
53 1 3.9178 3.8887 3.9522
54 1 5.7826 5.8967 3.7915
55 1 5.7985 4.0524 5.9388
56 1 3.8166 5.8016 5.9502
57 1 7.7988 3.8713 3.8686
58 1 9.8133 5.8843 3.8757
59 1 9.8132 3.8539 5.8410
60 1 7.9327 5.7071 5.5934
61 1 0.0196 7.8086 3.8975
62 1 1.9687 9.8128 3.8747
63 1 1.9135 7.9002 5.8092
64 1 11.7570 9.7867 5.8689
65 1 3.6863 7.7879 3.8498
66 1 5.8433 9.7929 3.8496
67 1 3.9251 9.5810 5.8107
68 1 7.8462 7.8039 3.8942
69 1 9.7836 9.7632 3.8648
70 1 9.7812 7.8347 5.8344
71 1 7.8520 9.8325 5.8246
72 1 0.0413 11.7381 7.8003
73 1 1.9781 1.9213 7.7999
74 1 1.9746 11.7298 9.7543
75 1 0.0194 1.9545 9.7716
76 1 3.9426 11.7128 7.7513
77 1 5.8902 1.9561 7.8142
78 1 5.9119 11.7474 9.7833
79 1 3.9504 1.9386 9.7525
80 1 7.8689 11.7586 7.8234
81 1 9.8369 1.9472 7.8012
82 1 9.8426 11.7486 9.7549
83 1 7.8784 1.9479 9.7545
84 1 11.7596 3.9357 7.7887
85 1 1.8312 5.9849 7.8345
86 1 1.9984 3.9219 9.7524
87 1 11.7559 5.8642 9.7801
88 1 3.8874 3.8014 7.7097
89 1 5.9296 5.9099 7.8030
90 1 5.8892 5.8951 11.7110
91 1 3.9438 6.0763 9.9100
92 1 7.8079 3.9522 7.8108
93 1 9.7633 5.8876 7.7952
94 1 9.7941 3.9002 9.7418
95 1 7.8409 5.8993 9.7726
96 1 11.7528 7.8589 7.7983
97 1 2.0132 9.7545 7.8186
98 1 1.9452 7.8231 9.7739
99 1 0.0210 9.7811 9.7635
100 1 4.0883 7.7150 7.8331
101 1 5.7976 9.8020 7.9839
102 1 5.9448 8.1032 9.7549
103 1 3.8562 9.8030 9.7791
104 1 7.7326 7.8839 7.5434
105 1 9.7818 9.7777 7.8159
106 1 9.7727 7.7784 9.7728
107 1 5.8486 3.9070 9.7594
ITEM: TIMESTEP
3
ITEM: NUMBER OF ATOMS
107
ITEM: BOX BOUNDS pp pp pp
0.0 11.76
0.0 11.76
0.0 11.76
ITEM: ATOMS id type x y z
1 1 11.7254 0.0006 11.7390
2 1 1.9581 1.9455 11.7184
3 1 1.9765 11.7476 1.8909
4 1 11.7496 1.9485 1.9545
5 1 3.9106 11.7596 11.7063
6 1 5.8834 1.9364 11.7114
7 1 5.9055 11.7449 1.9523
8 1 3.9200 1.9696 1.9591
9 1 7.8529 11.7561 11.7218
10 1 9.8025 1.9978 11.7159
11 1 9.7738 11.7487 1.9431
12 1 7.8527 1.9333 1.9478
13 1 0.0425 3.8792 11.7205
14 1 1.9862 5.8560 11.7329
15 1 1.9557 3.8830 1.9215
16 1 0.0075 5.8464 1.9295
17 1 3.9306 3.9357 11.7142
18 1 7.8605 9.7919 9.7494
19 1 5.8841 3.8918 1.9148
20 1 3.9302 5.8371 1.9200
21 1 7.8385 3.9194 11.7284
22 1 9.8006 5.8502 11.7274
23 1 9.8190 3.9153 1.9366
24 1 7.8391 5.8787 1.9173
25 1 0.0159 7.8476 11.7404
26 1 1.9494 9.8251 11.7463
27 1 1.9451 7.8446 1.9144
28 1 0.0026 9.8115 1.9164
29 1 3.9103 7.8695 0.0172
30 1 5.8450 9.8061 11.7530
31 1 5.8706 7.8185 1.9695
32 1 3.9281 9.7740 1.9189
33 1 7.8689 7.8311 11.7145
34 1 9.8169 9.7527 11.7287
35 1 9.8072 7.8383 1.8889
36 1 7.8296 9.7979 1.9169
37 1 11.7485 11.7365 3.8889
38 1 1.9478 1.9495 3.8782
39 1 2.0013 11.7098 5.8219
40 1 11.7591 1.8979 5.8572
41 1 3.9501 11.7023 3.9033
42 1 5.9005 1.9440 3.9156
43 1 5.8945 11.6976 5.8530
44 1 3.9094 1.9347 5.8577
45 1 7.8415 11.7305 3.8999
46 1 9.8019 1.9287 3.8780
47 1 9.8248 11.7118 5.8468
48 1 7.8346 1.9647 5.8600
49 1 0.0206 3.8932 3.8870
50 1 1.9473 5.8336 3.9130
51 1 1.9118 3.8923 5.8748
52 1 11.7529 5.8816 5.8431
53 1 3.9190 3.8948 3.9524
54 1 5.7861 5.8862 3.7976
55 1 5.8138 4.0357 5.9187
56 1 3.8134 5.8085 5.9405
57 1 7.7963 3.8703 3.8630
58 1 9.8181 5.8837 3.8701
59 1 9.8159 3.8536 5.8396
60 1 7.9120 5.7396 5.6437
61 1 0.0165 7.8119 3.8944
62 1 1.9694 9.8122 3.8753
63 1 1.9263 7.8901 5.8199
64 1 11.7570 9.7885 5.8680
65 1 3.7240 7.7937 3.8516
66 1 5.8420 9.7912 3.8448
67 1 3.9230 9.6071 5.8144
68 1 7.8488 7.8070 3.8870
69 1 9.7819 9.7620 3.8664
70 1 9.7718 7.8344 5.8318
71 1 7.8458 9.8382 5.8235
72 1 0.0415 11.7359 7.8011
73 1 1.9784 1.9222 7.8020
74 1 1.9721 11.7323 9.7545
75 1 0.0202 1.9548 9.7694
76 1 3.9418 11.7111 7.7501
77 1 5.8881 1.9582 7.8142
78 1 5.9092 11.7505 9.7842
79 1 3.9480 1.9373 9.7505
80 1 7.8662 11.7563 7.8191
81 1 9.8351 1.9474 7.8014
82 1 9.8414 11.7483 9.7556
83 1 7.8764 1.9489 9.7542
84 1 11.7590 3.9342 7.7919
85 1 1.8589 5.9729 7.8354
86 1 1.9996 3.9247 9.7521
87 1 11.7496 5.8662 9.7787
88 1 3.8877 3.8410 7.7388
89 1 5.9344 5.9017 7.8097
90 1 5.8924 5.8999 11.7109
91 1 3.9422 6.0304 9.8654
92 1 7.8086 3.9549 7.8077
93 1 9.7579 5.8889 7.7889
94 1 9.7942 3.9040 9.7417
95 1 7.8357 5.9061 9.7626
96 1 11.7463 7.8612 7.8000
97 1 2.0183 9.7503 7.8129
98 1 1.9450 7.8266 9.7761
99 1 0.0188 9.7808 9.7639
100 1 4.0570 7.7373 7.8363
101 1 5.8112 9.8135 7.9456
102 1 5.9332 8.0343 9.7533
103 1 3.8584 9.8009 9.7786
104 1 7.7611 7.8669 7.5915
105 1 9.7791 9.7746 7.8116
106 1 9.7665 7.7799 9.7599
107 1 5.8493 3.9103 9.7582
ITEM: TIMESTEP
4
ITEM: NUMBER OF ATOMS
107
ITEM: BOX BOUNDS pp pp pp
0.0 11.76
0.0 11.76
0.0 11.76
ITEM: ATOMS id type x y z
1 1 11.7266 0.0013 11.7383
2 1 1.9601 1.9456 11.7179
3 1 1.9762 11.7498 1.8945
4 1 11.7499 1.9476 1.9520
5 1 3.9116 0.0010 11.7094
6 1 5.8838 1.9373 11.7126
7 1 5.9032 11.7469 1.9502
8 1 3.9214 1.9679 1.9580
9 1 7.8548 11.7563 11.7221
10 1 9.8026 1.9958 11.7173
11 1 9.7744 11.7483 1.9416
12 1 7.8518 1.9343 1.9460
13 1 0.0406 3.8809 11.7201
14 1 1.9847 5.8571 11.7330
15 1 1.9577 3.8834 1.9225
16 1 0.0076 5.8464 1.9278
17 1 3.9315 3.9342 11.7134
18 1 7.8631 9.7926 9.7459
19 1 5.8826 3.8913 1.9131
20 1 3.9278 5.8394 1.9209
21 1 7.8373 3.9194 11.7271
22 1 9.7994 5.8519 11.7231
23 1 9.8194 3.9134 1.9335
24 1 7.8363 5.8805 1.9220
25 1 0.0152 7.8449 11.7389
26 1 1.9485 9.8240 11.7444
27 1 1.9417 7.8429 1.9132
28 1 0.0015 9.8114 1.9176
29 1 3.9111 7.8710 0.0164
30 1 5.8493 9.8087 11.7532
31 1 5.8695 7.8203 1.9769
32 1 3.9281 9.7746 1.9245
33 1 7.8662 7.8323 11.7171
34 1 9.8161 9.7547 11.7260
35 1 9.8082 7.8367 1.8917
36 1 7.8269 9.7933 1.9219
37 1 11.7496 11.7359 3.8882
38 1 1.9497 1.9465 3.8801
39 1 2.0010 11.7087 5.8231
40 1 0.0006 1.8990 5.8563
41 1 3.9517 11.7011 3.9049
42 1 5.8975 1.9436 3.9188
43 1 5.8914 11.6877 5.8533
44 1 3.9113 1.9350 5.8553
45 1 7.8387 11.7285 3.9025
46 1 9.8013 1.9272 3.8799
47 1 9.8227 11.7143 5.8477
48 1 7.8330 1.9647 5.8613
49 1 0.0199 3.8928 3.8880
50 1 1.9488 5.8330 3.9136
51 1 1.9115 3.8912 5.8757
52 1 11.7504 5.8828 5.8442
53 1 3.9199 3.9000 3.9523
54 1 5.7893 5.8778 3.8030
55 1 5.8224 4.0292 5.9065
56 1 3.8119 5.8137 5.9324
57 1 7.7952 3.8730 3.8610
58 1 9.8191 5.8828 3.8678
59 1 9.8171 3.8546 5.8380
60 1 7.9014 5.7568 5.6728
61 1 0.0146 7.8148 3.8923
62 1 1.9706 9.8107 3.8761
63 1 1.9373 7.8820 5.8269
64 1 11.7575 9.7893 5.8669
65 1 3.7443 7.7975 3.8536
66 1 5.8429 9.7900 3.8422
67 1 3.9226 9.6261 5.8174
68 1 7.8514 7.8093 3.8812
69 1 9.7798 9.7609 3.8686
70 1 9.7632 7.8343 5.8295
71 1 7.8415 9.8409 5.8226
72 1 0.0416 11.7339 7.8017
73 1 1.9778 1.9207 7.8023
74 1 1.9703 11.7342 9.7546
75 1 0.0208 1.9552 9.7675
76 1 3.9418 11.7088 7.7500
77 1 5.8874 1.9570 7.8123
78 1 5.9070 11.7521 9.7844
79 1 3.9459 1.9360 9.7489
80 1 7.8630 11.7528 7.8160
81 1 9.8334 1.9475 7.8016
82 1 9.8405 11.7482 9.7561
83 1 7.8746 1.9499 9.7540
84 1 11.7584 3.9329 7.7946
85 1 1.8740 5.9648 7.8337
86 1 1.9995 3.9263 9.7521
87 1 11.7475 5.8665 9.7788
88 1 3.8903 3.8673 7.7570
89 1 5.9350 5.8953 7.8147
90 1 5.8940 5.9028 11.7117
91 1 3.9442 6.0108 9.8438
92 1 7.8097 3.9566 7.8047
93 1 9.7541 5.8896 7.7837
94 1 9.7942 3.9070 9.7418
95 1 7.8318 5.9094 9.7565
96 1 11.7415 7.8619 7.8013
97 1 2.0218 9.7473 7.8082
98 1 1.9454 7.8291 9.7783
99 1 0.0168 9.7804 9.7641
100 1 4.0355 7.7524 7.8394
101 1 5.8206 9.8178 7.9219
102 1 5.9290 8.0005 9.7459
103 1 3.8625 9.7987 9.7775
104 1 7.7759 7.8585 7.6194
105 1 9.7759 9.7722 7.8080
106 1 9.7658 7.7831 9.7549
107 1 5.8506 3.9118 9.7575
ITEM: TIMESTEP
5
ITEM: NUMBER OF ATOMS
107
ITEM: BOX BOUNDS pp pp pp
0.0 11.76
0.0 11.76
0.0 11.76
ITEM: ATOMS id type x y z
1 1 11.7277 0.0019 11.7375
2 1 1.9619 1.9457 11.7176
3 1 1.9760 11.7516 1.8978
4 1 11.7503 1.9469 1.9498
5 1 3.9126 0.0017 11.7118
6 1 5.8842 1.9380 11.7136
7 1 5.9013 11.7488 1.9483
8 1 3.9226 1.9664 1.9571
9 1 7.8562 11.7559 11.7221
10 1 9.8028 1.9940 11.7184
11 1 9.7748 11.7478 1.9403
12 1 7.8509 1.9352 1.9445
13 1 0.0389 3.8826 11.7196
14 1 1.9836 5.8581 11.7329
15 1 1.9596 3.8837 1.9234
16 1 0.0080 5.8465 1.9265
17 1 3.9323 3.9326 11.7126
18 1 7.8639 9.7923 9.7430
19 1 5.8813 3.8911 1.9120
20 1 3.9259 5.8418 1.9221
21 1 7.8362 3.9195 11.7260
22 1 9.7996 5.8520 11.7225
23 1 9.8190 3.9124 1.9319
24 1 7.8339 5.8819 1.9263
25 1 0.0143 7.8424 11.7374
26 1 1.9477 9.8231 11.7429
27 1 1.9394 7.8412 1.9126
28 1 0.0005 9.8113 1.9186
29 1 3.9120 7.8715 0.0147
30 1 5.8531 9.8098 11.7524
31 1 5.8687 7.8217 1.9836
32 1 3.9280 9.7752 1.9295
33 1 7.8636 7.8334 11.7195
34 1 9.8153 9.7565 11.7238
35 1 9.8092 7.8352 1.8941
36 1 7.8247 9.7892 1.9264
37 1 11.7504 11.7354 3.8876
38 1 1.9514 1.9439 3.8819
39 1 2.0005 11.7080 5.8242
40 1 0.0021 1.8998 5.8556
41 1 3.9530 11.7000 3.9062
42 1 5.8949 1.9434 3.9215
43 1 5.8889 11.6790 5.8534
44 1 3.9132 1.9360 5.8540
45 1 7.8362 11.7268 3.9046
46 1 9.8004 1.9265 3.8818
47 1 9.8209 11.7167 5.8486
48 1 7.8318 1.9645 5.8624
49 1 0.0189 3.8925 3.8889
50 1 1.9506 5.8333 3.9143
51 1 1.9115 3.8902 5.8767
52 1 11.7484 5.8840 5.8450
53 1 3.9206 3.9045 3.9521
54 1 5.7921 5.8708 3.8075
55 1 5.8285 4.0260 5.8976
56 1 3.8112 5.8179 5.9255
57 1 7.7946 3.8768 3.8605
58 1 9.8186 5.8819 3.8670
59 1 9.8176 3.8559 5.8364
60 1 7.8943 5.7691 5.6934
61 1 0.0131 7.8173 3.8908
62 1 1.9719 9.8089 3.8770
63 1 1.9470 7.8754 5.8320
64 1 11.7580 9.7895 5.8657
65 1 3.7548 7.7972 3.8505
66 1 5.8444 9.7892 3.8405
67 1 3.9226 9.6411 5.8199
68 1 7.8538 7.8110 3.8761
69 1 9.7776 9.7600 3.8709
70 1 9.7552 7.8345 5.8275
71 1 7.8418 9.8436 5.8232
72 1 0.0416 11.7319 7.8023
73 1 1.9776 1.9199 7.8024
74 1 1.9690 11.7356 9.7545
75 1 0.0213 1.9555 9.7658
76 1 3.9419 11.7065 7.7504
77 1 5.8866 1.9561 7.8104
78 1 5.9050 11.7530 9.7842
79 1 3.9440 1.9347 9.7475
80 1 7.8599 11.7494 7.8133
81 1 9.8319 1.9476 7.8018
82 1 9.8397 11.7482 9.7564
83 1 7.8729 1.9508 9.7537
84 1 11.7579 3.9316 7.7968
85 1 1.8852 5.9595 7.8321
86 1 1.9992 3.9275 9.7521
87 1 11.7460 5.8669 9.7785
88 1 3.8936 3.8867 7.7695
89 1 5.9339 5.8904 7.8189
90 1 5.8950 5.9051 11.7127
91 1 3.9464 5.9981 9.8291
92 1 7.8109 3.9576 7.8019
93 1 9.7510 5.8902 7.7792
94 1 9.7941 3.9096 9.7420
95 1 7.8286 5.9115 9.7519
96 1 11.7377 7.8620 7.8022
97 1 2.0245 9.7451 7.8043
98 1 1.9457 7.8311 9.7804
99 1 0.0152 9.7801 9.7641
100 1 4.0192 7.7631 7.8422
101 1 5.8295 9.8209 7.9080
102 1 5.9262 7.9760 9.7373
103 1 3.8670 9.7968 9.7760
104 1 7.7854 7.8548 7.6375
105 1 9.7729 9.7704 7.8047
106 1 9.7663 7.7861 9.7518
107 1 5.8520 3.9128 9.7572
ITEM: TIMESTEP
6
ITEM: NUMBER OF ATOMS
107
ITEM: BOX BOUNDS pp pp pp
0.0 11.76
0.0 11.76
0.0 11.76
ITEM: ATOMS id type x y z
1 1 11.7288 0.0025 11.7367
2 1 1.9635 1.9459 11.7172
3 1 1.9758 11.7531 1.9008
4 1 11.7507 1.9462 1.9478
5 1 3.9137 0.0020 11.7138
6 1 5.8845 1.9387 11.7144
7 1 5.8997 11.7505 1.9466
8 1 3.9237 1.9651 1.9563
9 1 7.8573 11.7552 11.7220
10 1 9.8029 1.9922 11.7192
11 1 9.7751 11.7471 1.9393
12 1 7.8501 1.9359 1.9431
13 1 0.0373 3.8841 11.7190
14 1 1.9828 5.8590 11.7326
15 1 1.9614 3.8841 1.9243
16 1 0.0086 5.8465 1.9254
17 1 3.9329 3.9311 11.7118
18 1 7.8638 9.7914 9.7404
19 1 5.8802 3.8911 1.9113
20 1 3.9244 5.8441 1.9234
21 1 7.8353 3.9197 11.7251
22 1 9.7996 5.8521 11.7221
23 1 9.8182 3.9118 1.9311
24 1 7.8317 5.8832 1.9303
25 1 0.0133 7.8402 11.7360
26 1 1.9471 9.8224 11.7417
27 1 1.9375 7.8397 1.9121
28 1 11.7597 9.8112 1.9194
29 1 3.9131 7.8715 0.0129
30 1 5.8564 9.8101 11.7513
31 1 5.8679 7.8228 1.9898
32 1 3.9280 9.7756 1.9338
33 1 7.8612 7.8344 11.7218
34 1 9.8145 9.7581 11.7221
35 1 9.8102 7.8339 1.8962
36 1 7.8227 9.7856 1.9305
37 1 11.7511 11.7349 3.8870
38 1 1.9531 1.9418 3.8835
39 1 1.9999 11.7075 5.8251
40 1 0.0033 1.9005 5.8550
41 1 3.9542 11.6991 3.9074
42 1 5.8929 1.9434 3.9237
43 1 5.8867 11.6713 5.8535
44 1 3.9150 1.9372 5.8534
45 1 7.8338 11.7252 3.9062
46 1 9.7994 1.9262 3.8835
47 1 9.8194 11.7189 5.8493
48 1 7.8307 1.9641 5.8632
49 1 0.0179 3.8923 3.8898
50 1 1.9522 5.8340 3.9149
51 1 1.9117 3.8893 5.8776
52 1 11.7467 5.8853 5.8458
53 1 3.9211 3.9085 3.9517
54 1 5.7948 5.8650 3.8114
55 1 5.8331 4.0248 5.8909
56 1 3.8109 5.8213 5.9196
57 1 7.7944 3.8811 3.8609
58 1 9.8174 5.8812 3.8670
59 1 9.8178 3.8574 5.8350
60 1 7.8890 5.7786 5.7095
61 1 0.0120 7.8196 3.8897
62 1 1.9733 9.8070 3.8780
63 1 1.9560 7.8697 5.8359
64 1 11.7585 9.7893 5.8645
65 1 3.7633 7.7970 3.8478
66 1 5.8461 9.7886 3.8393
67 1 3.9227 9.6532 5.8218
68 1 7.8561 7.8123 3.8716
69 1 9.7755 9.7593 3.8732
70 1 9.7477 7.8348 5.8257
71 1 7.8426 9.8454 5.8237
72 1 0.0415 11.7300 7.8028
73 1 1.9776 1.9195 7.8024
74 1 1.9680 11.7365 9.7544
75 1 0.0217 1.9559 9.7643
76 1 3.9422 11.7042 7.7509
77 1 5.8858 1.9553 7.8085
78 1 5.9033 11.7537 9.7838
79 1 3.9423 1.9337 9.7462
80 1 7.8569 11.7462 7.8109
81 1 9.8305 1.9476 7.8020
82 1 9.8389 11.7482 9.7565
83 1 7.8713 1.9516 9.7533
84 1 11.7574 3.9306 7.7988
85 1 1.8939 5.9558 7.8307
86 1 1.9987 3.9285 9.7521
87 1 11.7447 5.8672 9.7781
88 1 3.8954 3.8985 7.7769
89 1 5.9319 5.8864 7.8223
90 1 5.8955 5.9070 11.7139
91 1 3.9487 5.9891 9.8182
92 1 7.8120 3.9582 7.7993
93 1 9.7485 5.8907 7.7754
94 1 9.7939 3.9118 9.7423
95 1 7.8260 5.9130 9.7482
96 1 11.7346 7.8617 7.8029
97 1 2.0266 9.7433 7.8010
98 1 1.9459 7.8326 9.7823
99 1 0.0137 9.7797 9.7639
100 1 4.0062 7.7714 7.8447
101 1 5.8370 9.8225 7.8974
102 1 5.9260 7.9602 9.7297
103 1 3.8716 9.7950 9.7744
104 1 7.7929 7.8525 7.6522
105 1 9.7700 9.7690 7.8016
106 1 9.7673 7.7888 9.7497
107 1 5.8534 3.9136 9.7571
ITEM: TIMESTEP
7
ITEM: NUMBER OF ATOMS
107
ITEM: BOX BOUNDS pp pp pp
0.0 11.76
0.0 11.76
0.0 11.76
ITEM: ATOMS id type x y z
1 1 11.7300 0.0031 11.7360
2 1 1.9650 1.9461 11.7169
3 1 1.9757 11.7544 1.9036
4 1 11.7511 1.9457 1.9461
5 1 3.9146 0.0022 11.7156
6 1 5.8849 1.9393 11.7150
7 1 5.8983 11.7520 1.9451
8 1 3.9248 1.9639 1.9558
9 1 7.8582 11.7545 11.7218
10 1 9.8030 1.9906 11.7199
11 1 9.7753 11.7465 1.9384
12 1 7.8493 1.9366 1.9420
13 1 0.0358 3.8855 11.7185
14 1 1.9821 5.8598 11.7321
15 1 1.9631 3.8844 1.9251
16 1 0.0092 5.8464 1.9244
17 1 3.9335 3.9296 11.7110
18 1 7.8632 9.7905 9.7382
19 1 5.8791 3.8911 1.9108
20 1 3.9231 5.8462 1.9246
21 1 7.8345 3.9200 11.7243
22 1 9.7995 5.8523 11.7219
23 1 9.8172 3.9114 1.9309
24 1 7.8298 5.8843 1.9339
25 1 0.0122 7.8381 11.7347
26 1 1.9466 9.8218 11.7408
27 1 1.9358 7.8383 1.9116
28 1 11.7590 9.8110 1.9202
29 1 3.9144 7.8712 0.0109
30 1 5.8593 9.8100 11.7502
31 1 5.8672 7.8237 1.9956
32 1 3.9279 9.7761 1.9377
33 1 7.8589 7.8354 11.7239
34 1 9.8136 9.7595 11.7208
35 1 9.8111 7.8327 1.8979
36 1 7.8211 9.7824 1.9341
37 1 11.7517 11.7344 3.8866
38 1 1.9548 1.9399 3.8849
39 1 1.9992 11.7072 5.8259
40 1 0.0044 1.9010 5.8545
41 1 3.9552 11.6983 3.9085
42 1 5.8911 1.9434 3.9257
43 1 5.8847 11.6645 5.8535
44 1 3.9167 1.9383 5.8531
45 1 7.8315 11.7239 3.9076
46 1 9.7984 1.9260 3.8850
47 1 9.8181 11.7211 5.8500
48 1 7.8297 1.9635 5.8639
49 1 0.0169 3.8920 3.8906
50 1 1.9536 5.8349 3.9154
51 1 1.9119 3.8885 5.8784
52 1 11.7454 5.8865 5.8464
53 1 3.9215 3.9119 3.9513
54 1 5.7972 5.8600 3.8146
55 1 5.8368 4.0248 5.8856
56 1 3.8109 5.8240 5.9145
57 1 7.7942 3.8854 3.8619
58 1 9.8157 5.8806 3.8674
59 1 9.8178 3.8590 5.8338
60 1 7.8865 5.7847 5.7193
61 1 0.0110 7.8216 3.8890
62 1 1.9747 9.8050 3.8791
63 1 1.9643 7.8647 5.8390
64 1 11.7589 9.7888 5.8633
65 1 3.7705 7.7969 3.8456
66 1 5.8478 9.7883 3.8384
67 1 3.9229 9.6634 5.8232
68 1 7.8581 7.8133 3.8676
69 1 9.7735 9.7588 3.8754
70 1 9.7407 7.8352 5.8240
71 1 7.8437 9.8464 5.8241
72 1 0.0414 11.7282 7.8032
73 1 1.9776 1.9194 7.8024
74 1 1.9673 11.7371 9.7543
75 1 0.0220 1.9562 9.7629
76 1 3.9426 11.7020 7.7515
77 1 5.8850 1.9547 7.8067
78 1 5.9017 11.7541 9.7834
79 1 3.9408 1.9328 9.7450
80 1 7.8541 11.7433 7.8088
81 1 9.8292 1.9477 7.8021
82 1 9.8380 11.7483 9.7566
83 1 7.8698 1.9523 9.7529
84 1 11.7570 3.9297 7.8004
85 1 1.9012 5.9530 7.8294
86 1 1.9982 3.9293 9.7520
87 1 11.7437 5.8676 9.7775
88 1 3.8974 3.9080 7.7824
89 1 5.9294 5.8831 7.8252
90 1 5.8958 5.9086 11.7149
91 1 3.9509 5.9822 9.8095
92 1 7.8131 3.9587 7.7969
93 1 9.7464 5.8913 7.7720
94 1 9.7937 3.9139 9.7425
95 1 7.8238 5.9142 9.7449
96 1 11.7320 7.8611 7.8033
97 1 2.0282 9.7417 7.7982
98 1 1.9461 7.8338 9.7840
99 1 0.0123 9.7795 9.7637
100 1 3.9955 7.7779 7.8470
101 1 5.8436 9.8231 7.8890
102 1 5.9244 7.9491 9.7256
103 1 3.8762 9.7934 9.7727
104 1 7.7991 7.8509 7.6645
105 1 9.7674 9.7680 7.7988
106 1 9.7684 7.7912 9.7483
107 1 5.8549 3.9141 9.7572
ITEM: TIMESTEP
8
ITEM: NUMBER OF ATOMS
107
ITEM: BOX BOUNDS pp pp pp
0.0 11.76
0.0 11.76
0.0 11.76
ITEM: ATOMS id type x y z
1 1 11.7311 0.0036 11.7352
2 1 1.9664 1.9464 11.7167
3 1 1.9756 11.7555 1.9062
4 1 11.7515 1.9452 1.9447
5 1 3.9155 0.0021 11.7172
6 1 5.8852 1.9398 11.7155
7 1 5.8971 11.7535 1.9437
8 1 3.9258 1.9629 1.9554
9 1 7.8590 11.7537 11.7216
10 1 9.8030 1.9891 11.7204
11 1 9.7754 11.7458 1.9377
12 1 7.8485 1.9372 1.9410
13 1 0.0345 3.8869 11.7180
14 1 1.9816 5.8605 11.7315
15 1 1.9646 3.8847 1.9258
16 1 0.0099 5.8464 1.9237
17 1 3.9341 3.9283 11.7102
18 1 7.8623 9.7894 9.7362
19 1 5.8782 3.8911 1.9105
20 1 3.9221 5.8482 1.9259
21 1 7.8339 3.9203 11.7235
22 1 9.7992 5.8525 11.7219
23 1 9.8161 3.9112 1.9308
24 1 7.8281 5.8853 1.9371
25 1 0.0111 7.8363 11.7334
26 1 1.9461 9.8213 11.7402
27 1 1.9344 7.8371 1.9111
28 1 11.7583 9.8108 1.9209
29 1 3.9157 7.8709 0.0091
30 1 5.8620 9.8097 11.7491
31 1 5.8667 7.8243 2.0009
32 1 3.9278 9.7764 1.9410
33 1 7.8567 7.8362 11.7258
34 1 9.8128 9.7608 11.7197
35 1 9.8120 7.8316 1.8995
36 1 7.8198 9.7797 1.9375
37 1 11.7521 11.7339 3.8862
38 1 1.9564 1.9383 3.8863
39 1 1.9986 11.7071 5.8266
40 1 0.0055 1.9015 5.8542
41 1 3.9561 11.6976 3.9095
42 1 5.8896 1.9436 3.9275
43 1 5.8830 11.6586 5.8535
44 1 3.9183 1.9394 5.8531
45 1 7.8293 11.7227 3.9088
46 1 9.7973 1.9260 3.8863
47 1 9.8171 11.7231 5.8506
48 1 7.8286 1.9629 5.8644
49 1 0.0160 3.8918 3.8913
50 1 1.9549 5.8359 3.9159
51 1 1.9122 3.8879 5.8792
52 1 11.7442 5.8877 5.8470
53 1 3.9217 3.9150 3.9509
54 1 5.7996 5.8557 3.8174
55 1 5.8398 4.0254 5.8813
56 1 3.8111 5.8263 5.9101
57 1 7.7941 3.8894 3.8630
58 1 9.8140 5.8801 3.8681
59 1 9.8178 3.8605 5.8327
60 1 7.8844 5.7900 5.7276
61 1 0.0102 7.8234 3.8886
62 1 1.9762 9.8029 3.8802
63 1 1.9721 7.8604 5.8414
64 1 11.7593 9.7881 5.8622
65 1 3.7766 7.7969 3.8436
66 1 5.8496 9.7882 3.8377
67 1 3.9230 9.6722 5.8244
68 1 7.8599 7.8141 3.8640
69 1 9.7716 9.7585 3.8774
70 1 9.7341 7.8356 5.8225
71 1 7.8449 9.8469 5.8243
72 1 0.0412 11.7265 7.8035
73 1 1.9778 1.9194 7.8024
74 1 1.9668 11.7374 9.7541
75 1 0.0222 1.9565 9.7616
76 1 3.9430 11.6999 7.7521
77 1 5.8842 1.9543 7.8049
78 1 5.9004 11.7545 9.7829
79 1 3.9394 1.9320 9.7439
80 1 7.8515 11.7408 7.8068
81 1 9.8279 1.9477 7.8022
82 1 9.8372 11.7483 9.7565
83 1 7.8684 1.9529 9.7525
84 1 11.7567 3.9290 7.8019
85 1 1.9075 5.9507 7.8283
86 1 1.9976 3.9300 9.7519
87 1 11.7428 5.8679 9.7768
88 1 3.8994 3.9160 7.7865
89 1 5.9268 5.8802 7.8277
90 1 5.8959 5.9101 11.7160
91 1 3.9530 5.9766 9.8023
92 1 7.8139 3.9589 7.7946
93 1 9.7445 5.8918 7.7690
94 1 9.7933 3.9157 9.7427
95 1 7.8220 5.9152 9.7421
96 1 11.7299 7.8604 7.8035
97 1 2.0294 9.7405 7.7958
98 1 1.9462 7.8349 9.7855
99 1 0.0111 9.7792 9.7634
100 1 3.9864 7.7834 7.8491
101 1 5.8494 9.8230 7.8820
102 1 5.9231 7.9399 9.7212
103 1 3.8806 9.7920 9.7710
104 1 7.8042 7.8496 7.6752
105 1 9.7650 9.7672 7.7961
106 1 9.7696 7.7934 9.7473
107 1 5.8563 3.9145 9.7573
ITEM: TIMESTEP
9
ITEM: NUMBER OF ATOMS
107
ITEM: BOX BOUNDS pp pp pp
0.0 11.76
0.0 11.76
0.0 11.76
ITEM: ATOMS id type x y z
1 1 11.7321 0.0040 11.7344
2 1 1.9677 1.9466 11.7164
3 1 1.9756 11.7564 1.9086
4 1 11.7519 1.9448 1.9433
5 1 3.9163 0.0020 11.7187
6 1 5.8855 1.9402 11.7158
7 1 5.8960 11.7547 1.9425
8 1 3.9267 1.9619 1.9552
9 1 7.8596 11.7529 11.7214
10 1 9.8030 1.9877 11.7208
11 1 9.7754 11.7451 1.9371
12 1 7.8477 1.9378 1.9402
13 1 0.0332 3.8881 11.7175
14 1 1.9813 5.8611 11.7309
15 1 1.9661 3.8849 1.9266
16 1 0.0105 5.8462 1.9232
17 1 3.9345 3.9271 11.7095
18 1 7.8612 9.7883 9.7344
19 1 5.8773 3.8911 1.9102
20 1 3.9213 5.8501 1.9271
21 1 7.8332 3.9207 11.7229
22 1 9.7987 5.8527 11.7219
23 1 9.8148 3.9110 1.9309
24 1 7.8265 5.8861 1.9401
25 1 0.0100 7.8345 11.7322
26 1 1.9458 9.8209 11.7397
27 1 1.9331 7.8360 1.9106
28 1 11.7577 9.8106 1.9215
29 1 3.9170 7.8706 0.0074
30 1 5.8644 9.8091 11.7482
31 1 5.8661 7.8248 2.0058
32 1 3.9278 9.7767 1.9440
33 1 7.8547 7.8370 11.7276
34 1 9.8120 9.7621 11.7188
35 1 9.8130 7.8306 1.9008
36 1 7.8186 9.7772 1.9405
37 1 11.7525 11.7334 3.8858
38 1 1.9579 1.9370 3.8876
39 1 1.9980 11.7070 5.8273
40 1 0.0063 1.9019 5.8540
41 1 3.9569 11.6970 3.9105
42 1 5.8883 1.9439 3.9290
43 1 5.8814 11.6534 5.8534
44 1 3.9199 1.9405 5.8532
45 1 7.8273 11.7217 3.9098
46 1 9.7963 1.9260 3.8875
47 1 9.8162 11.7251 5.8512
48 1 7.8276 1.9623 5.8649
49 1 0.0152 3.8916 3.8919
50 1 1.9560 5.8371 3.9163
51 1 1.9125 3.8874 5.8800
52 1 11.7432 5.8889 5.8476
53 1 3.9219 3.9177 3.9505
54 1 5.8018 5.8520 3.8197
55 1 5.8423 4.0265 5.8779
56 1 3.8115 5.8282 5.9062
57 1 7.7941 3.8932 3.8643
58 1 9.8122 5.8798 3.8688
59 1 9.8177 3.8619 5.8317
60 1 7.8827 5.7947 5.7347
61 1 0.0096 7.8250 3.8884
62 1 1.9776 9.8009 3.8813
63 1 1.9795 7.8565 5.8434
64 1 11.7596 9.7872 5.8610
65 1 3.7818 7.7969 3.8418
66 1 5.8513 9.7883 3.8373
67 1 3.9231 9.6799 5.8253
68 1 7.8616 7.8146 3.8608
69 1 9.7698 9.7583 3.8794
70 1 9.7279 7.8361 5.8211
71 1 7.8462 9.8471 5.8244
72 1 0.0410 11.7248 7.8038
73 1 1.9779 1.9194 7.8024
74 1 1.9665 11.7376 9.7540
75 1 0.0224 1.9568 9.7605
76 1 3.9435 11.6979 7.7527
77 1 5.8834 1.9539 7.8031
78 1 5.8992 11.7548 9.7823
79 1 3.9382 1.9313 9.7429
80 1 7.8491 11.7384 7.8050
81 1 9.8267 1.9476 7.8023
82 1 9.8364 11.7483 9.7563
83 1 7.8671 1.9535 9.7520
84 1 11.7564 3.9284 7.8031
85 1 1.9129 5.9490 7.8273
86 1 1.9971 3.9307 9.7517
87 1 11.7421 5.8682 9.7760
88 1 3.9014 3.9227 7.7896
89 1 5.9240 5.8777 7.8298
90 1 5.8959 5.9114 11.7171
91 1 3.9549 5.9719 9.7962
92 1 7.8147 3.9591 7.7925
93 1 9.7430 5.8923 7.7664
94 1 9.7929 3.9174 9.7428
95 1 7.8205 5.9160 9.7396
96 1 11.7282 7.8597 7.8035
97 1 2.0304 9.7394 7.7938
98 1 1.9462 7.8357 9.7869
99 1 0.0101 9.7791 9.7631
100 1 3.9785 7.7880 7.8511
101 1 5.8546 9.8225 7.8761
102 1 5.9219 7.9320 9.7169
103 1 3.8848 9.7906 9.7694
104 1 7.8086 7.8486 7.6847
105 1 9.7628 9.7665 7.7936
106 1 9.7707 7.7953 9.7467
107 1 5.8577 3.9147 9.7575
ITEM: TIMESTEP
10
ITEM: NUMBER OF ATOMS
107
ITEM: BOX BOUNDS pp pp pp
0.0 11.76
0.0 11.76
0.0 11.76
ITEM: ATOMS id type x y z
1 1 11.7332 0.0044 11.7337
2 1 1.9688 1.9469 11.7162
3 1 1.9756 11.7572 1.9109
4 1 11.7523 1.9444 1.9422
5 1 3.9170 0.0018 11.7200
6 1 5.8857 1.9406 11.7160
7 1 5.8951 11.7559 1.9413
8 1 3.9276 1.9611 1.9550
9 1 7.8602 11.7521 11.7212
10 1 9.8030 1.9865 11.7211
11 1 9.7753 11.7444 1.9366
12 1 7.8470 1.9385 1.9395
13 1 0.0321 3.8893 11.7170
14 1 1.9810 5.8616 11.7301
15 1 1.9675 3.8852 1.9272