ITEM: TIMESTEP
0
ITEM: NUMBER OF ATOMS
108
ITEM: BOX BOUNDS pp pp pp
0.0000000000000000e+00 1.1760000000000000e+01
0.0000000000000000e+00 1.1760000000000000e+01
0.0000000000000000e+00 1.1760000000000000e+01
ITEM: ATOMS id type x y z fx fy fz c_pe
1 1 0.00423208 11.7536 11.735 5.37252e-05 -0.0290559 -0.00853927 -5.76956
2 1 1.96403 1.95101 11.7295 0.0179674 0.00842907 0.00103582 -5.77012
3 1 1.97321 11.7509 1.92451 -0.0109266 -0.0158404 0.00925297 -5.7699
4 1 0.00363731 1.94552 1.93153 0.00135649 0.0065774 0.0136228 -5.76988
5 1 3.92835 11.7545 11.7264 -0.0109714 -0.0121992 0.00126458 -5.76963
6 1 5.88438 1.94848 11.727 0.0028601 0.0166063 -0.00551619 -5.76974
7 1 5.88384 11.7529 1.92711 0.000634568 -0.0186121 0.00653383 -5.76964
8 1 3.92794 1.9526 1.93349 -0.0179903 0.00384727 -0.0145653 -5.77026
9 1 7.84004 11.7535 11.7268 0.00961211 -0.0114477 0.0007835 -5.76975
10 1 9.80321 1.95009 11.7295 -0.0139328 0.00771802 0.00106067 -5.76995
11 1 9.79621 11.7496 1.925 0.00664962 -0.0117545 0.0111835 -5.76999
12 1 7.84108 1.95161 1.93368 0.0173798 -0.000211325 -0.0100362 -5.77031
13 1 0.00298849 3.9017 11.7273 0.00258483 0.0110388 0.0060793 -5.76949
14 1 1.9657 5.85572 11.7267 -0.00434084 0.0101162 0.00404774 -5.77001
15 1 1.96134 3.90547 1.93519 0.0125934 -0.0109325 -0.0147908 -5.77075
16 1 0.0036712 5.86343 1.92801 0.00339253 -0.00383164 0.00109906 -5.7701
17 1 3.92911 3.90745 11.7233 -0.0434161 -0.031078 0.0411877 -5.76987
18 1 7.84289 9.78732 9.77195 -0.00144603 -0.00283906 -0.00689754 -5.7699
19 1 5.88566 3.90554 1.93657 -0.00393096 0.00739068 -0.0176513 -5.77053
20 1 3.92307 5.85739 1.93327 0.0187726 0.0108197 -0.0196954 -5.77009
21 1 7.84175 3.90717 11.7252 0.0243636 -0.0260977 0.0210266 -5.77037
22 1 9.80208 5.85695 11.7271 0.00481764 0.00985439 0.00307288 -5.76976
23 1 9.80613 3.90569 1.93585 -0.0111154 -0.0127414 -0.0184474 -5.77034
24 1 7.84633 5.85847 1.93437 -0.022738 0.0151867 -0.0227393 -5.77025
25 1 0.00426134 7.81842 11.7331 0.00128387 0.0115353 -0.0106084 -5.76993
26 1 1.97057 9.78604 11.7323 -0.0101596 0.00753749 -0.00126495 -5.77003
27 1 1.97226 7.8192 1.92183 -0.01174 0.0117887 0.00500679 -5.76958
28 1 0.00521861 9.78459 1.9179 0.000299488 0.00251155 0.0107284 -5.76993
29 1 3.92628 7.81971 11.7253 0.0141198 -0.00450415 0.0114079 -5.77009
30 1 5.88357 9.78854 11.7209 0.0034051 -0.0163937 0.0171514 -5.77022
31 1 5.88369 7.82014 1.92811 0.00214713 -0.0086269 -0.0149476 -5.77074
32 1 3.93491 9.78512 1.92238 -0.0122253 0.00174018 0.00503017 -5.77014
33 1 7.84286 7.82141 11.7261 -0.0196376 -0.0100682 0.0102821 -5.77026
34 1 9.79874 9.78618 11.7324 0.00824219 0.00826253 -0.00107838 -5.76996
35 1 9.79754 7.82069 1.92253 0.00693386 0.0089251 0.00677123 -5.76957
36 1 7.83297 9.78526 1.92275 0.0131357 0.00139125 0.00513235 -5.7701
37 1 0.00483681 11.7327 3.87647 -0.000707981 0.0199121 0.0104401 -5.77036
38 1 1.96349 1.94047 3.89232 -0.00593041 0.0045609 -0.0146109 -5.77013
39 1 1.9632 11.7305 5.84232 0.00151873 0.0206522 0.00501356 -5.77003
40 1 0.00275862 1.93136 5.84074 0.00915484 0.00690247 0.0146106 -5.76962
41 1 3.92918 11.7458 3.88847 -0.00909936 -0.0027847 -0.00424681 -5.76977
42 1 5.88438 1.94781 3.89492 0.000370561 -0.00122624 0.00816087 -5.76963
43 1 5.88398 11.7441 5.85233 -0.00118603 0.0226433 0.0143595 -5.77004
44 1 3.91791 1.94143 5.8514 0.015462 -0.00270491 0.00239835 -5.77016
45 1 7.83849 11.7443 3.88865 0.0140156 0.00203708 -0.00576448 -5.76988
46 1 9.80519 1.94077 3.89332 -0.00368346 -0.00749586 -0.0209774 -5.76992
47 1 9.80545 11.7297 5.84203 -0.00512584 0.0196483 0.00370395 -5.77003
48 1 7.84978 1.94055 5.85118 -0.0126216 0.00258478 0.00531072 -5.77035
49 1 0.00213677 3.90702 3.89444 0.0155751 -0.00818284 -0.0131037 -5.76963
50 1 1.96198 5.87046 3.8905 0.000153069 -0.010391 0.00261354 -5.76993
51 1 1.95746 3.90523 5.84939 0.00182816 0.00394783 -0.00100643 -5.76977
52 1 0.00322172 5.87779 5.84605 0.00879644 -0.00414461 0.00730137 -5.76984
53 1 3.91956 3.9056 3.89866 0.00334672 -0.00126145 -0.0140386 -5.76938
54 1 5.88417 5.86167 3.89596 -0.000492968 0.00579647 -0.0137483 -5.76944
55 1 5.88358 3.90438 5.85059 0.00403708 -0.00042767 0.00590545 -5.76954
56 1 3.91935 5.86783 5.85301 0.0039964 -0.00315944 -0.00375279 -5.76998
57 1 7.84986 3.90585 3.89932 -0.0101364 -0.00288439 -0.0124117 -5.76956
58 1 9.80709 5.87051 3.89129 -0.00797309 0.00129039 -0.00147994 -5.76962
59 1 9.81061 3.90563 5.84961 -0.0141967 0.00370873 0.011035 -5.76945
60 1 7.84834 5.86954 5.85189 -0.000828934 -0.0112295 0.00314301 -5.7702
61 1 0.0052694 7.83213 3.87594 -0.00107071 -0.00888711 0.0143959 -5.77029
62 1 1.97389 9.78182 3.87334 -0.0129549 0.00624012 0.0175647 -5.77006
63 1 1.9648 7.83435 5.84579 0.000213825 -0.0118836 0.00351854 -5.77014
64 1 0.00542278 9.78057 5.83968 -0.00219454 0.00341466 0.00578328 -5.76928
65 1 3.92831 7.82227 3.88733 0.000288173 0.00570293 0.00235435 -5.76971
66 1 5.88336 9.78499 3.89123 -0.000121458 -0.00862933 -0.0175856 -5.76962
67 1 5.88394 7.82132 5.85406 -0.00281269 0.00965833 -0.000858303 -5.77024
68 1 3.92788 9.78395 5.8487 -0.0108408 -0.0066856 0.00558469 -5.76984
69 1 7.83924 7.82361 3.88736 0.00500457 0.00367183 0.000471348 -5.76978
70 1 9.79613 9.78177 3.87346 0.00981481 0.00610609 0.0186617 -5.76994
71 1 9.80471 7.83521 5.84535 -0.00507159 -0.0109043 0.00162765 -5.77012
72 1 7.83997 9.78365 5.84849 0.0126788 -0.00546945 0.00552169 -5.76986
73 1 0.00347247 11.7317 7.80774 0.00438742 0.01468 0.00329343 -5.76982
74 1 1.95404 1.93534 7.80144 0.013983 0.012067 0.0103238 -5.77033
75 1 1.96125 11.7455 9.77356 0.00634977 -0.00146744 -0.00317552 -5.77005
76 1 0.00341788 1.94219 9.76747 0.00220532 0.00773554 -0.0109483 -5.7697
77 1 3.91952 11.7434 7.8099 0.0146885 0.00642457 -0.00659363 -5.77008
78 1 5.88383 1.95189 7.80933 0.000390968 -0.0294563 -0.0186786 -5.77037
79 1 5.88457 11.7541 9.76375 -0.0018705 -0.0173935 0.000859065 -5.76937
80 1 3.91806 1.94693 9.76178 0.00492483 0.00379844 0.0111174 -5.77002
81 1 7.84862 11.7434 7.8098 -0.0144336 0.00529876 -0.00935507 -5.76996
82 1 9.81325 1.93496 7.80169 -0.0179789 0.0193839 0.00828879 -5.77026
83 1 9.80619 11.7458 9.77316 -0.00376508 -0.00515164 -0.000162302 -5.76996
84 1 7.84966 1.94712 9.76169 -0.00791233 0.011259 0.0128916 -5.77019
85 1 0.00389555 3.90479 7.80005 -0.0004846 -0.000895758 0.0146705 -5.7697
86 1 1.95806 5.87263 7.80633 0.0103764 -0.00881346 0.00890907 -5.77042
87 1 1.95949 3.90314 9.76001 0.00168143 -0.0012061 0.0105375 -5.77025
88 1 0.00367135 5.8646 9.76785 0.00200912 0.00081098 0.00029503 -5.76979
89 1 3.91691 3.90347 7.80487 -0.00202283 0.0011329 -0.000317801 -5.77036
90 1 5.88386 5.85777 7.81029 0.000911568 0.0215523 -0.0194175 -5.77
91 1 5.88426 5.86119 11.7259 0.00813149 0.0205236 0.0377437 -5.76932
92 1 3.92387 5.85934 9.76595 -0.0275101 0.0260006 -0.0139344 -5.76905
93 1 7.8485 3.90418 7.80518 0.0145293 0.000561213 -0.00173572 -5.77072
94 1 9.80996 5.8739 7.80627 -0.0152025 -0.0180288 0.00683078 -5.77033
95 1 9.80836 3.90362 9.75986 -0.0065575 -0.00222172 0.0067305 -5.77006
96 1 7.84504 5.86027 9.76587 0.0178532 0.0146894 -0.00902639 -5.76942
97 1 0.00409108 7.83392 7.81365 0.00328344 -0.0050953 -0.00591671 -5.76983
98 1 1.96525 9.78415 7.81516 -0.00435655 -0.00486595 -0.00827802 -5.7697
99 1 1.96378 7.82588 9.77634 0.00386345 -0.0113984 -0.0151209 -5.77018
100 1 0.00420366 9.78519 9.78236 -0.0003023 0.00247106 -0.0115677 -5.77027
101 1 3.92304 7.82575 7.81274 -0.000697103 -0.000415247 -0.00355984 -5.7704
102 1 5.88436 9.78597 7.81151 -0.00197167 -0.00211689 0.00425622 -5.77005
103 1 5.88462 7.81943 9.76498 -0.000173905 0.0165693 0.0128578 -5.76992
104 1 3.92603 9.78727 9.7726 -0.000852707 -0.00172304 -0.0108602 -5.76982
105 1 7.84539 7.82562 7.81222 -0.000152035 0.0012144 -0.00398958 -5.77025
106 1 9.8037 9.78398 7.81438 0.00143658 -0.00477973 -0.00702038 -5.76976
107 1 9.80438 7.82602 9.77607 -0.00268971 -0.00840679 -0.0132243 -5.77
108 1 5.88164 3.90734 9.77142 0.0206882 -0.037906 -0.0486005 -5.76834
ITEM: TIMESTEP
10
ITEM: NUMBER OF ATOMS
108
ITEM: BOX BOUNDS pp pp pp
0.0000000000000000e+00 1.1760000000000000e+01
0.0000000000000000e+00 1.1760000000000000e+01
0.0000000000000000e+00 1.1760000000000000e+01
ITEM: ATOMS id type x y z fx fy fz c_pe
1 1 0.0266064 11.7702 11.732 -0.0794188 -0.155873 0.013802 -5.7698
2 1 1.97611 1.92468 11.728 0.00237564 0.245442 0.0536237 -5.76558
3 1 1.98272 11.7502 1.9534 -0.100116 -0.149869 -0.147443 -5.76345
4 1 0.000430173 1.93543 1.92102 0.0285522 0.142883 0.0359328 -5.76943
5 1 3.91426 11.762 11.7504 0.0569972 -0.161096 -0.144029 -5.76755
6 1 5.88184 1.94132 11.7215 -0.00949744 0.0782375 0.0296354 -5.76946
7 1 5.87193 11.7447 1.91447 0.0580084 -0.00788175 0.118987 -5.77203
8 1 3.92863 1.94785 1.93137 0.0226007 0.113442 0.0943341 -5.76843
9 1 7.84135 11.7545 11.7346 -0.0297639 -0.0490769 0.00717056 -5.7684
10 1 9.79688 1.94739 11.7328 0.0175402 -0.022277 -0.0346084 -5.7659
11 1 9.79897 11.753 1.93425 -0.0062121 -0.0547827 -0.0813344 -5.76963
12 1 7.83937 1.95578 1.9256 -0.0270277 -0.0775516 0.0874102 -5.76857
13 1 -0.00163728 3.89085 11.708 0.0493143 0.0868423 0.17807 -5.7711
14 1 1.98225 5.86178 11.7339 -0.191244 -0.06828 -0.0237529 -5.76461
15 1 1.96544 3.91227 1.93458 -0.0594521 -0.121997 -0.0477084 -5.77251
16 1 -0.00529991 5.85355 1.93044 -0.00624347 0.0209211 -0.0884875 -5.77109
17 1 3.93472 3.91041 11.7287 -0.0886602 -0.148373 -0.0177037 -5.76855
18 1 7.84785 9.77678 9.79235 -0.0754219 0.08973 -0.153173 -5.77004
19 1 5.89421 3.91415 1.94316 -0.0757995 -0.053644 -0.0105737 -5.77016
20 1 3.91883 5.84676 1.9192 0.133636 0.0917498 0.115067 -5.76565
21 1 7.83261 3.89572 11.7397 0.0198937 0.046662 -0.13904 -5.77153
22 1 9.79794 5.86789 11.7209 0.0619733 -0.0864629 0.0493864 -5.76722
23 1 9.79497 3.89842 1.93854 0.0990475 -0.0104973 -0.0674484 -5.77027
24 1 7.86187 5.84878 1.93884 -0.134985 0.123325 -0.0437744 -5.7729
25 1 0.0176888 7.80793 11.7425 -0.0689535 0.0251694 -0.0372775 -5.7669
26 1 1.96883 9.77205 11.7222 0.028106 0.0790351 0.0503855 -5.77731
27 1 1.97907 7.81013 1.94004 -0.0839208 0.0742533 -0.11831 -5.7646
28 1 -0.0147102 9.77765 1.90224 0.130854 0.0814193 0.0641856 -5.77437
29 1 3.92559 7.81253 11.733 0.0441232 0.10226 -0.055339 -5.7703
30 1 5.87286 9.78427 11.7126 0.00971531 0.0257966 0.0470028 -5.77143
31 1 5.89735 7.84322 1.94498 -0.0826933 -0.261042 -0.151143 -5.76821
32 1 3.92944 9.76723 1.93305 0.0021665 0.0745518 -0.0513594 -5.76812
33 1 7.8394 7.82357 11.729 -0.0493212 -0.0648874 0.0268964 -5.76954
34 1 9.79751 9.80039 11.7185 0.0624155 -0.0551588 0.148295 -5.76543
35 1 9.79077 7.82633 1.92779 0.0556978 -0.0147769 -0.0394527 -5.77116
36 1 7.82605 9.77718 1.92808 0.115659 0.148537 -0.108445 -5.76619
37 1 -3.85267e-06 11.7493 3.87525 0.0650813 -0.135779 0.0154971 -5.76445
38 1 1.95113 1.92046 3.88042 0.0801789 0.200898 0.0912979 -5.76892
39 1 1.97555 11.7398 5.85682 -0.0222454 -0.0418568 -0.117053 -5.7734
40 1 -0.0198701 1.93328 5.83395 0.239246 0.0292004 0.0575664 -5.76691
41 1 3.92954 11.7344 3.89093 0.0358034 0.024822 0.0382894 -5.76919
42 1 5.88377 1.94687 3.90322 -0.0414789 -0.0447644 -0.0801917 -5.76956
43 1 5.8785 11.7315 5.852 0.0997835 0.163288 0.0224191 -5.77369
44 1 3.91576 1.95217 5.85111 0.0429836 -0.0566217 -0.112371 -5.76667
45 1 7.84543 11.747 3.87855 -0.101625 -0.00431968 0.0328459 -5.77372
46 1 9.81102 1.92864 3.91088 -0.0471866 0.115648 -0.192797 -5.76546
47 1 9.79932 11.742 5.84503 -0.0136577 -0.100211 0.0519019 -5.76371
48 1 7.85675 1.95282 5.83946 -0.111766 -0.125656 0.152201 -5.76889
49 1 8.69835e-05 3.91927 3.88434 0.064273 -0.145524 0.00947323 -5.77027
50 1 1.95102 5.88397 3.88855 0.0477834 -0.144843 0.00587905 -5.76377
51 1 1.95614 3.90438 5.85199 -0.0165766 -0.0139759 -0.0906087 -5.77053
52 1 0.00501939 5.87419 5.84167 -0.0584905 0.0260594 0.0436448 -5.76642
53 1 3.91287 3.92342 3.8985 0.00120796 -0.12812 -0.0206891 -5.77195
54 1 5.88698 5.85945 3.90981 0.0319146 0.0673561 -0.145477 -5.76852
55 1 5.90343 3.90248 5.83256 -0.0881652 0.0586077 0.14842 -5.76753
56 1 3.91753 5.87436 5.84313 0.0626925 -0.059269 0.167612 -5.77213
57 1 7.85448 3.89866 3.89641 -0.0159936 0.0410175 -0.0118692 -5.76279
58 1 9.80888 5.86242 3.89833 -0.0349425 0.131312 -0.0460857 -5.76727
59 1 9.80798 3.9173 5.83926 -0.065642 0.0361505 0.0985982 -5.76822
60 1 7.84125 5.90688 5.83871 0.0215638 -0.224924 0.0856256 -5.76859
61 1 0.0123636 7.83558 3.86944 -0.156059 -0.0175536 0.0418425 -5.77008
62 1 1.97016 9.77089 3.87145 0.0121281 0.102167 0.0666937 -5.77019
63 1 1.96186 7.82674 5.83225 0.0670643 0.104783 0.119871 -5.76759
64 1 0.0183749 9.79533 5.81882 -0.0691814 -0.0278272 0.130221 -5.76678
65 1 3.93331 7.80537 3.88916 0.0184311 0.0400584 -0.0299964 -5.76633
66 1 5.89598 9.77059 3.89417 -0.0705525 0.162048 -0.0283963 -5.76091
67 1 5.88215 7.83098 5.86722 0.0222109 -0.111654 0.0116868 -5.76704
68 1 3.96484 9.75813 5.84258 -0.333085 0.123292 0.0228763 -5.76729
69 1 7.84194 7.85405 3.87911 0.048582 -0.210421 0.0544383 -5.76147
70 1 9.80011 9.79389 3.88842 0.0329369 -0.0216854 -0.0566299 -5.76854
71 1 9.79213 7.84239 5.85009 0.115603 -0.0263027 -0.0333456 -5.76873
72 1 7.84385 9.78121 5.85159 -0.0259554 0.0701675 0.0712787 -5.77072
73 1 8.15913e-05 11.7282 7.80797 0.00920721 0.0465247 0.0179232 -5.77255
74 1 1.96499 1.93847 7.8033 -0.130211 0.00888662 -0.0611175 -5.76795
75 1 1.97374 11.7613 9.76998 -0.0674508 -0.154113 0.00932426 -5.76465
76 1 0.0173819 1.95671 9.76482 -0.0916042 -0.109944 -0.0388736 -5.76683
77 1 3.9143 11.7428 7.81323 0.058828 -0.0240346 -0.117293 -5.7623
78 1 5.8591 1.9558 7.81738 0.219368 -0.0657208 -0.200849 -5.76653
79 1 5.88967 11.7731 9.76233 -0.0363192 -0.197431 0.0631437 -5.76766
80 1 3.92478 1.93862 9.74029 -0.0616744 0.0887099 0.227721 -5.7628
81 1 7.86176 11.7461 7.82411 -0.0975139 -0.00943254 -0.131448 -5.77103
82 1 9.82933 1.94455 7.78843 -0.10619 -0.0277871 0.110608 -5.76612
83 1 9.8081 11.7415 9.78477 0.0610041 0.0667144 -0.0833435 -5.76978
84 1 7.84646 1.91948 9.74756 0.0177677 0.207366 0.0956525 -5.76505
85 1 0.00377094 3.90384 7.78683 -0.0233978 0.0697142 0.077067 -5.76943
86 1 1.95811 5.88242 7.79633 0.0484128 -0.106902 0.0398066 -5.76683
87 1 1.95042 3.89953 9.76206 0.125814 0.049026 -0.00318869 -5.77365
88 1 0.0040412 5.84994 9.76057 -0.0626991 0.0746779 -0.0191546 -5.77464
89 1 3.91668 3.88309 7.79425 -0.00552801 0.274624 0.0286368 -5.76741
90 1 5.8935 5.84721 7.82514 -0.108898 -0.00652832 -0.0916057 -5.77534
91 1 5.86779 5.86085 11.7244 0.17878 0.0785336 0.0279379 -5.77255
92 1 3.90389 5.87067 9.78062 0.0818915 -0.0803802 -0.167165 -5.76588
93 1 7.84799 3.89098 7.8132 -0.000803808 0.0828526 -0.0614114 -5.77333
94 1 9.78823 5.87993 7.8096 0.112298 -0.0655759 0.00908948 -5.77454
95 1 9.80122 3.88109 9.76946 -0.0064579 0.0973003 -0.0555921 -5.76716
96 1 7.86858 5.85883 9.77401 -0.140026 -0.0303291 0.0267884 -5.76583
97 1 0.00643019 7.83516 7.78024 -0.0473583 0.0304286 0.161382 -5.77114
98 1 1.96255 9.80391 7.81586 0.0067277 -0.158913 -0.0377734 -5.7723
99 1 1.94943 7.80864 9.76873 0.00556323 0.140321 -0.012981 -5.76648
100 1 0.00304876 9.78746 9.78564 0.0610091 -0.0219082 -0.0521393 -5.76853
101 1 3.91907 7.83975 7.83436 -0.0317409 -0.121383 -0.133309 -5.76841
102 1 5.86882 9.7992 7.80985 0.205458 0.00209629 0.0702203 -5.76469
103 1 5.88831 7.82649 9.74663 -0.0199166 -0.0891381 0.155524 -5.76478
104 1 3.9411 9.79247 9.76189 -0.151134 -0.00544471 0.142245 -5.76883
105 1 7.83167 7.81475 7.82279 0.0845899 0.12135 0.00823436 -5.76496
106 1 9.79869 9.78448 7.81342 0.0532629 -0.0307632 0.00774169 -5.77197
107 1 9.8139 7.84099 9.79055 0.049614 -0.092821 -0.134544 -5.76925
108 1 5.86559 3.90477 9.77128 0.142517 0.0171252 -0.0117068 -5.76869
ITEM: TIMESTEP
20
ITEM: NUMBER OF ATOMS
108
ITEM: BOX BOUNDS pp pp pp
0.0000000000000000e+00 1.1760000000000000e+01
0.0000000000000000e+00 1.1760000000000000e+01
0.0000000000000000e+00 1.1760000000000000e+01
ITEM: ATOMS id type x y z fx fy fz c_pe
1 1 0.0485901 11.7861 11.7291 -0.163001 -0.282892 0.0314508 -5.76766
2 1 1.98821 1.89956 11.7267 -0.0175311 0.480249 0.103905 -5.75618
3 1 1.99175 11.7487 1.98156 -0.183879 -0.2715 -0.304412 -5.75306
4 1 -0.002637 1.92604 1.91068 0.0540825 0.268951 0.0576001 -5.76752
5 1 3.90044 11.7687 11.7736 0.126789 -0.309312 -0.281602 -5.76103
6 1 5.87926 1.93454 11.7161 -0.0215896 0.13487 0.0664346 -5.76849
7 1 5.8603 11.7365 1.90242 0.11348 0.00131378 0.223601 -5.77295
8 1 3.92943 1.94366 1.92972 0.0615109 0.215995 0.198761 -5.76554
9 1 7.84251 11.7553 11.7424 -0.0686095 -0.0824571 0.0110264 -5.76682
10 1 9.79063 1.94458 11.7359 0.0495488 -0.0527119 -0.0665393 -5.76115
11 1 9.80171 11.7561 1.94311 -0.019047 -0.0933171 -0.169625 -5.76807
12 1 7.83753 1.95957 1.91795 -0.0716347 -0.154648 0.181053 -5.76502
13 1 -0.00602315 3.88042 11.6896 0.0882787 0.159521 0.34241 -5.76907
14 1 1.99786 5.8675 11.741 -0.373492 -0.141297 -0.0511228 -5.75621
15 1 1.96925 3.91847 1.93373 -0.126148 -0.223164 -0.0733505 -5.77258
16 1 -0.0143029 5.84378 1.93244 -0.0143822 0.0496226 -0.171441 -5.77089
17 1 3.93991 3.91265 11.7341 -0.126797 -0.256589 -0.0743118 -5.76556
18 1 7.85245 9.76668 9.812 -0.143903 0.177917 -0.291081 -5.76769
19 1 5.9024 3.9225 1.9497 -0.144825 -0.10921 -0.00325318 -5.769
20 1 3.91525 5.83658 1.90571 0.23701 0.165754 0.250821 -5.75749
21 1 7.82357 3.8845 11.7536 0.0175319 0.121687 -0.289882 -5.77009
22 1 9.7941 5.8784 11.715 0.118768 -0.174952 0.0964608 -5.76296
23 1 9.78429 3.89109 1.94091 0.205115 -0.00778005 -0.111163 -5.76866
24 1 7.87676 5.83969 1.9431 -0.233762 0.223885 -0.0632537 -5.77345
25 1 0.0307792 7.79756 11.7518 -0.134948 0.0376126 -0.0630392 -5.76284
26 1 1.96724 9.75844 11.7123 0.0633053 0.142193 0.0966652 -5.78155
27 1 1.98546 7.80143 1.95766 -0.151668 0.132856 -0.243804 -5.75751
28 1 -0.0339988 9.7711 1.88689 0.252848 0.152551 0.115937 -5.77593
29 1 3.92511 7.80587 11.7405 0.0712168 0.207399 -0.115654 -5.7682
30 1 5.8622 9.78014 11.7044 0.0187934 0.0638173 0.0789543 -5.77175
31 1 5.9106 7.86503 1.9611 -0.173237 -0.499932 -0.289923 -5.76033
32 1 3.92399 9.74971 1.94347 0.0182604 0.146499 -0.105028 -5.76548
33 1 7.83569 7.82542 11.7319 -0.0725856 -0.115898 0.0401798 -5.76824
34 1 9.79659 9.81434 11.7053 0.113314 -0.117325 0.295184 -5.75717
35 1 9.78427 7.83191 1.93285 0.103848 -0.0412315 -0.0845008 -5.77146
36 1 7.81971 9.76984 1.93286 0.218557 0.301239 -0.226114 -5.75859
37 1 -0.00452717 11.7652 3.8741 0.121788 -0.287618 0.020303 -5.75478
38 1 1.93916 1.90145 3.86897 0.165011 0.392992 0.196045 -5.76363
39 1 1.98779 11.7489 5.87074 -0.0546997 -0.0933733 -0.234388 -5.77328
40 1 -0.0413211 1.93535 5.82745 0.465035 0.0543049 0.100267 -5.76014
41 1 3.93008 11.7232 3.89359 0.0809001 0.0517617 0.0784565 -5.76784
42 1 5.88294 1.94571 3.91112 -0.0790027 -0.0848778 -0.163486 -5.76817
43 1 5.87351 11.7198 5.85178 0.188774 0.29432 0.0231315 -5.77477
44 1 3.91383 1.96263 5.85027 0.0687996 -0.110432 -0.2245 -5.76184
45 1 7.85186 11.7497 3.86862 -0.209835 -0.0114587 0.0709311 -5.77669
46 1 9.81662 1.91708 3.92749 -0.0967195 0.24045 -0.365031 -5.75672
47 1 9.79311 11.7538 5.84829 -0.0229872 -0.221581 0.100282 -5.7559
48 1 7.86317 1.96449 5.82849 -0.196953 -0.2427 0.285771 -5.76439
49 1 -0.00164791 3.9308 3.8743 0.106451 -0.276658 0.0354075 -5.76948
50 1 1.94029 5.89676 3.88663 0.0941588 -0.281354 0.00961016 -5.75539
51 1 1.95473 3.90346 5.85414 -0.0339758 -0.025568 -0.172546 -5.77011
52 1 0.00653092 5.87071 5.8375 -0.118787 0.0529344 0.0763583 -5.76177
53 1 3.90619 3.9406 3.89825 0.00497206 -0.242315 -0.0249937 -5.77297
54 1 5.88995 5.85756 3.92295 0.0603581 0.121069 -0.269008 -5.76497
55 1 5.92285 3.90088 5.81526 -0.179099 0.112117 0.284288 -5.76331
56 1 3.91603 5.88059 5.83407 0.111979 -0.114987 0.323494 -5.77156
57 1 7.85903 3.89167 3.89344 -0.0214534 0.0836121 -0.0160861 -5.75436
58 1 9.81049 5.85498 3.90514 -0.0598443 0.254299 -0.0925198 -5.76326
59 1 9.80501 3.92916 5.8294 -0.110684 0.0595811 0.184089 -5.76588
60 1 7.83427 5.94312 5.82594 0.0461762 -0.423247 0.157539 -5.7628
61 1 0.0186888 7.83896 3.86313 -0.306747 -0.0239037 0.0662409 -5.76849
62 1 1.9665 9.76045 3.86988 0.0413633 0.188605 0.107378 -5.76707
63 1 1.95925 7.81965 5.81929 0.128176 0.212512 0.227429 -5.76277
64 1 0.0309896 9.80996 5.79859 -0.130081 -0.0569761 0.253233 -5.7625
65 1 3.9384 7.78866 3.89083 0.0363207 0.0747268 -0.063707 -5.76159
66 1 5.90826 9.75698 3.89697 -0.146674 0.336241 -0.0324343 -5.74794
67 1 5.88048 7.84008 5.88045 0.0552662 -0.237284 0.0241474 -5.75961
68 1 4.00016 9.73292 5.83658 -0.646208 0.253274 0.0358006 -5.75737
69 1 7.84489 7.88345 3.87112 0.102993 -0.424058 0.118217 -5.74768
70 1 9.80424 9.8059 3.9031 0.0538295 -0.0489985 -0.130026 -5.76651
71 1 9.78012 7.84944 5.85467 0.229691 -0.04189 -0.0643429 -5.76507
72 1 7.8476 9.77911 5.85505 -0.0640951 0.141982 0.132695 -5.77075
73 1 -0.0032648 11.725 7.80828 0.0129312 0.0757577 0.0299054 -5.77456
74 1 1.9753 1.94164 7.80486 -0.270026 0.00660738 -0.127534 -5.76332
75 1 1.98589 11.7764 9.76645 -0.142351 -0.302415 0.0184127 -5.75748
76 1 0.0308969 1.9707 9.76198 -0.181384 -0.226544 -0.0673066 -5.76168
77 1 3.90937 11.7422 7.81598 0.103468 -0.0533411 -0.22307 -5.75153
78 1 5.83546 1.95938 7.82443 0.437647 -0.096857 -0.374339 -5.75789
79 1 5.8946 11.7911 9.76122 -0.072384 -0.377418 0.120296 -5.76229
80 1 3.93119 1.93075 9.71993 -0.130733 0.170732 0.445839 -5.75035
81 1 7.87443 11.7488 7.83777 -0.16937 -0.0359474 -0.248867 -5.76813
82 1 9.84488 1.954 7.77572 -0.195713 -0.0696325 0.212295 -5.76019
83 1 9.81032 11.7375 9.79597 0.121798 0.135057 -0.164136 -5.76763
84 1 7.84336 1.89286 9.7339 0.0509377 0.400511 0.178602 -5.75544
85 1 0.00353278 3.90323 7.77398 -0.0409376 0.135216 0.137487 -5.76783
86 1 1.95841 5.89168 7.78653 0.0791107 -0.197191 0.067755 -5.76243
87 1 1.94197 3.89616 9.76409 0.24621 0.0995694 -0.0175463 -5.77464
88 1 0.00410232 5.83565 9.7532 -0.124138 0.141993 -0.0346184 -5.77726
89 1 3.91643 3.86406 7.78378 -0.0112757 0.535864 0.0547529 -5.7596
90 1 5.90261 5.83662 7.83954 -0.200677 -0.0298114 -0.158245 -5.77726
91 1 5.85218 5.8609 11.723 0.338577 0.124425 0.0120966 -5.7727
92 1 3.88431 5.88161 9.79448 0.192491 -0.17958 -0.308039 -5.75974
93 1 7.84746 3.87817 7.82093 -0.0150977 0.153828 -0.108236 -5.77337
94 1 9.76705 5.88564 7.81296 0.234103 -0.109029 0.00375578 -5.77587
95 1 9.79405 3.85903 9.7788 -0.00925456 0.191775 -0.114627 -5.76292
96 1 7.89143 5.85724 9.78228 -0.290254 -0.0692705 0.0550861 -5.75955
97 1 0.00853793 7.83656 7.74762 -0.0919766 0.0660586 0.31719 -5.76941
98 1 1.95988 9.82289 7.81638 0.0125302 -0.305955 -0.0595873 -5.77194
99 1 1.9351 7.79207 9.76107 -0.00181913 0.280388 -0.00840524 -5.76049
100 1 0.00219451 9.78963 9.78866 0.120044 -0.0408708 -0.0893845 -5.76529
101 1 3.91495 7.85316 7.85532 -0.0645649 -0.232186 -0.256736 -5.7638
102 1 5.85429 9.81244 7.80853 0.404528 0.00271351 0.133905 -5.75587
103 1 5.89191 7.83311 9.72905 -0.0420185 -0.186696 0.29461 -5.75729
104 1 3.95544 9.79765 9.75188 -0.293003 -0.00394561 0.288856 -5.76387
105 1 7.81836 7.80448 7.8334 0.171781 0.233464 0.0153811 -5.75714
106 1 9.79394 9.78482 7.81249 0.101846 -0.0537086 0.0262083 -5.77293
107 1 9.82367 7.85551 9.80437 0.0916867 -0.17727 -0.245987 -5.76682
108 1 5.85025 3.90228 9.77108 0.251873 0.0684942 0.0248386 -5.767
ITEM: TIMESTEP
30
ITEM: NUMBER OF ATOMS
108
ITEM: BOX BOUNDS pp pp pp
0.0000000000000000e+00 1.1760000000000000e+01
0.0000000000000000e+00 1.1760000000000000e+01
0.0000000000000000e+00 1.1760000000000000e+01
ITEM: ATOMS id type x y z fx fy fz c_pe
1 1 0.0697898 11.8006 11.7263 -0.247011 -0.40262 0.0443155 -5.76359
2 1 2.00023 1.87678 11.7259 -0.0417691 0.700177 0.14907 -5.74301
3 1 1.99988 11.7459 2.00824 -0.257338 -0.371777 -0.455803 -5.74003
4 1 -0.00544044 1.91797 1.90062 0.077767 0.376612 0.0794013 -5.76458
5 1 3.88724 11.7739 11.7955 0.195161 -0.446295 -0.405277 -5.75113
6 1 5.87656 1.92841 11.7111 -0.0329326 0.182796 0.103995 -5.76697
7 1 5.84923 11.7283 1.89146 0.16401 0.010284 0.316074 -5.77264
8 1 3.93053 1.94052 1.92904 0.0951735 0.302975 0.29252 -5.76223
9 1 7.84333 11.7556 11.7502 -0.104763 -0.109182 0.00898814 -5.7651
10 1 9.78462 1.94151 11.7387 0.0805028 -0.0814208 -0.0933734 -5.756
11 1 9.80435 11.7588 1.95114 -0.0302398 -0.124168 -0.249102 -5.76555
12 1 7.83533 1.9626 1.91119 -0.113345 -0.226324 0.265418 -5.76014
13 1 -0.00998015 3.87076 11.6729 0.118717 0.225624 0.489624 -5.76441
14 1 2.01164 5.87254 11.7478 -0.539316 -0.205586 -0.0776669 -5.7459
15 1 1.97245 3.92358 1.93252 -0.18343 -0.308336 -0.0916192 -5.7714
16 1 -0.0233849 5.83424 1.9336 -0.0187896 0.0810594 -0.241677 -5.76965
17 1 3.94447 3.91362 11.739 -0.156416 -0.346675 -0.125481 -5.76156
18 1 7.85634 9.75744 9.83023 -0.201681 0.257522 -0.413642 -5.7637
19 1 5.90988 3.93031 1.95622 -0.207503 -0.157242 0.00187035 -5.76725
20 1 3.91283 5.8272 1.89344 0.322722 0.230116 0.377796 -5.74685
21 1 7.81461 3.87387 11.766 0.0186344 0.194362 -0.423135 -5.76675
22 1 9.79085 5.88807 11.7095 0.171473 -0.252988 0.141712 -5.75736
23 1 9.77461 3.88371 1.94272 0.300134 -0.00336908 -0.148718 -5.76595
24 1 7.89051 5.8317 1.94705 -0.316559 0.311182 -0.081727 -5.7725
25 1 0.0432177 7.78737 11.7607 -0.19552 0.0503515 -0.0884997 -5.75797
26 1 1.96595 9.74551 11.7029 0.093347 0.195434 0.137501 -5.78323
27 1 1.99112 7.79337 1.9741 -0.211952 0.184089 -0.364317 -5.74896
28 1 -0.0520604 9.76531 1.87211 0.364034 0.21285 0.166313 -5.77503
29 1 3.92499 7.80021 11.7474 0.0919972 0.301867 -0.168767 -5.76441
30 1 5.85163 9.77631 11.6967 0.0327162 0.0951658 0.112908 -5.77123
31 1 5.923 7.88439 1.9758 -0.263342 -0.713032 -0.423169 -5.74872
32 1 3.91861 9.7329 1.95339 0.0366323 0.214007 -0.153049 -5.76238
33 1 7.83163 7.82669 11.7351 -0.0862539 -0.158723 0.0476076 -5.76664
34 1 9.79622 9.82772 11.6936 0.157474 -0.177551 0.42884 -5.74612
35 1 9.77828 7.83729 1.93751 0.148778 -0.0680701 -0.127363 -5.77062
36 1 7.81444 9.76397 1.93653 0.314465 0.446712 -0.339083 -5.74833
37 1 -0.00845716 11.7797 3.87306 0.16694 -0.425435 0.0244823 -5.74231
38 1 1.928 1.88435 3.85847 0.245473 0.570131 0.292563 -5.75538
39 1 1.99976 11.7576 5.88352 -0.0943022 -0.133935 -0.342781 -5.77042
40 1 -0.0605004 1.93769 5.82144 0.672262 0.0791816 0.140075 -5.75047
41 1 3.93101 11.7122 3.89664 0.122104 0.0782075 0.11266 -5.76593
42 1 5.88173 1.94413 3.91823 -0.109045 -0.117648 -0.237395 -5.76584
43 1 5.86944 11.7094 5.85167 0.262218 0.409504 0.0183895 -5.77393
44 1 3.91223 1.97255 5.84832 0.0916623 -0.160679 -0.324727 -5.75617
45 1 7.85727 11.7523 3.85902 -0.303777 -0.0191043 0.108759 -5.7789
46 1 9.82174 1.90669 3.94231 -0.148875 0.35838 -0.525689 -5.74503
47 1 9.78679 11.7645 5.85205 -0.0299497 -0.334648 0.142758 -5.74728
48 1 7.86863 1.97497 5.81891 -0.264709 -0.344283 0.399791 -5.758
49 1 -0.00286208 3.94098 3.86442 0.138008 -0.394526 0.0650216 -5.76764
50 1 1.93002 5.90817 3.88476 0.137138 -0.410519 0.0140379 -5.7457
51 1 1.95315 3.90241 5.85545 -0.0491432 -0.0302917 -0.242943 -5.76874
52 1 0.00746047 5.86749 5.8337 -0.168422 0.0766751 0.103245 -5.7563
53 1 3.89953 3.95661 3.89787 0.0151393 -0.338961 -0.0264014 -5.77284
54 1 5.89322 5.85626 3.93477 0.0834176 0.164312 -0.378826 -5.75938
55 1 5.94141 3.89982 5.79935 -0.266278 0.158097 0.406334 -5.75754
56 1 3.91507 5.88627 5.82659 0.150754 -0.167148 0.456255 -5.76907
57 1 7.86347 3.88508 3.89038 -0.0266262 0.122755 -0.023184 -5.74487
58 1 9.81182 5.84878 3.9115 -0.081292 0.363025 -0.139564 -5.7581
59 1 9.8015 3.94131 5.82043 -0.147201 0.069575 0.262811 -5.76285
60 1 7.82751 5.97731 5.81394 0.0732717 -0.601237 0.219996 -5.75384
61 1 0.0235084 7.84222 3.85715 -0.442638 -0.0286902 0.0878165 -5.76612
62 1 1.96303 9.75093 3.86884 0.0726643 0.260454 0.138776 -5.76126
63 1 1.95727 7.81359 5.80745 0.18003 0.304823 0.320552 -5.7565
64 1 0.0429765 9.82432 5.7796 -0.183763 -0.0846611 0.371144 -5.75673
65 1 3.94367 7.77231 3.89219 0.0517953 0.109913 -0.0956599 -5.75591
66 1 5.91982 9.74502 3.89961 -0.223232 0.499674 -0.0302208 -5.73213
67 1 5.87907 7.84802 5.89381 0.0928728 -0.357377 0.0346131 -5.74861
68 1 4.03233 9.70893 5.83074 -0.933897 0.37828 0.0464388 -5.74198
69 1 7.84835 7.91078 3.86371 0.161874 -0.623164 0.187169 -5.72987
70 1 9.80864 9.81768 3.91715 0.0683681 -0.075544 -0.1996 -5.76403
71 1 9.76923 7.85629 5.85894 0.331411 -0.0571646 -0.0902726 -5.75968
72 1 7.85104 9.77771 5.85916 -0.100601 0.204072 0.184098 -5.77015
73 1 -0.00655061 11.7221 7.80873 0.0167887 0.101922 0.0377755 -5.77589
74 1 1.98429 1.94485 7.8058 -0.395379 0.00528348 -0.184967 -5.75732
75 1 1.99736 11.7899 9.76301 -0.214162 -0.43722 0.0236903 -5.7492
76 1 0.043532 1.98358 9.7588 -0.262143 -0.335552 -0.0925708 -5.75498
77 1 3.90494 11.7412 7.81763 0.146795 -0.0770748 -0.316229 -5.73879
78 1 5.81396 1.9625 7.82966 0.641662 -0.122442 -0.527357 -5.74621
79 1 5.89917 11.8073 9.7607 -0.110095 -0.544974 0.168569 -5.75417
80 1 3.93697 1.92371 9.70174 -0.197058 0.244845 0.648407 -5.73442
81 1 7.88627 11.7512 7.85022 -0.228781 -0.0698289 -0.354962 -5.76211
82 1 9.85949 1.96312 7.76405 -0.282426 -0.10525 0.307314 -5.75296
83 1 9.81314 11.7342 9.80637 0.173871 0.196093 -0.238935 -5.76408
84 1 7.8405 1.86819 9.72111 0.0868708 0.581732 0.259099 -5.74238
85 1 0.00309409 3.90329 7.76181 -0.0528252 0.192067 0.194451 -5.76507
86 1 1.95909 5.89998 7.77705 0.0999581 -0.275922 0.092507 -5.75761
87 1 1.93473 3.89328 9.76603 0.356006 0.147061 -0.0324014 -5.77362
88 1 0.00355202 5.82205 9.74564 -0.178448 0.201253 -0.0447642 -5.77804
89 1 3.91612 3.84766 7.77356 -0.0181581 0.768521 0.079172 -5.74867
90 1 5.91074 5.82588 7.85317 -0.272003 -0.0443778 -0.217196 -5.77645
91 1 5.83823 5.86156 11.7217 0.478784 0.155781 -0.00706929 -5.77066
92 1 3.86567 5.89168 9.80684 0.29889 -0.267516 -0.429488 -5.75166
93 1 7.84687 3.86612 7.82813 -0.0273653 0.213482 -0.143023 -5.77145
94 1 9.747 5.89082 7.81635 0.344779 -0.146164 -0.00781343 -5.77478
95 1 9.78682 3.8379 9.78758 -0.0119567 0.279022 -0.167903 -5.75772
96 1 7.91287 5.8553 9.79083 -0.427168 -0.0994211 0.0731014 -5.75128
97 1 0.0101961 7.83829 7.71653 -0.128201 0.0982743 0.458007 -5.76529
98 1 1.95727 9.84039 7.81661 0.0145201 -0.439943 -0.0742881 -5.76925